# LAMMPS data file written by OVITO
38441 atoms
1 atom types
0.0 600.0 xlo xhi
0.0 150.0 ylo yhi
-45.0 55.0 zlo zhi

Atoms # full

1 1 1 0.0 328.1602173 34.4242287 5.0
2 1 1 0.0 146.36026 0.3338783 5.0
3 1 1 0.0 216.3622437 14.7182169 5.0
4 1 1 0.0 222.3130036 16.4203091 5.0
5 1 1 0.0 220.9293824 14.4919253 5.0
6 1 1 0.0 221.0008087 15.8139048 5.0
7 1 1 0.0 223.7639771 18.2577171 5.0
8 1 1 0.0 222.4179077 17.6714611 5.0
9 1 1 0.0 306.6873169 19.880169 5.0
10 1 1 0.0 285.0950012 50.3789292 5.0
11 1 1 0.0 286.2489014 51.0287552 5.0
12 1 1 0.0 287.4423218 50.2793007 5.0
13 1 1 0.0 237.132843 43.0882378 5.0
14 1 1 0.0 237.2779236 44.4415322 5.0
15 1 1 0.0 242.2232971 54.5266724 5.0
16 1 1 0.0 249.5608216 39.9050256 5.0
17 1 1 0.0 270.0246582 60.1018906 5.0
18 1 1 0.0 271.2545166 60.8235398 5.0
19 1 1 0.0 270.0337219 58.8568536 5.0
20 1 1 0.0 273.3511963 34.145462 5.0
21 1 1 0.0 272.4145203 40.6635132 5.0
22 1 1 0.0 272.09552 47.1056557 5.0
23 1 1 0.0 270.8026123 46.3177834 5.0
24 1 1 0.0 271.0693665 41.374485 5.0
25 1 1 0.0 328.2475281 38.8017388 5.0
26 1 1 0.0 328.901886 38.0394554 5.0
27 1 1 0.0 330.0681152 35.8310662 5.0
28 1 1 0.0 330.400116 38.0048485 5.0
29 1 1 0.0 330.6845093 37.5919838 5.0
30 1 1 0.0 328.24823 36.3384705 5.0
31 1 1 0.0 328.5960694 35.8232117 5.0
32 1 1 0.0 329.3165283 33.4198571 5.0
33 1 1 0.0 318.1417236 29.4751778 5.0
34 1 1 0.0 317.2013855 31.5512905 5.0
35 1 1 0.0 317.0250855 30.4434414 5.0
36 1 1 0.0 324.0549011 29.2064705 5.0
37 1 1 0.0 316.7865906 37.4627342 5.0
38 1 1 0.0 286.7405396 30.9851476 5.0
39 1 1 0.0 285.2624512 30.9884052 5.0
40 1 1 0.0 289.3439636 35.9369584 5.0
41 1 1 0.0 283.2518005 36.611557 5.0
42 1 1 0.0 282.6314087 35.355278 5.0
43 1 1 0.0 218.5605774 14.6526327 5.0
44 1 1 0.0 217.4553375 14.1460371 5.0
45 1 1 0.0 219.6579743 13.906147 5.0
46 1 1 0.0 224.784317 17.4589253 5.0
47 1 1 0.0 227.0016937 15.9566278 5.0
48 1 1 0.0 223.3606262 15.6132832 5.0
49 1 1 0.0 224.6655731 16.2067185 5.0
50 1 1 0.0 225.7187653 15.3916655 5.0
51 1 1 0.0 226.1016388 18.038044 5.0
52 1 1 0.0 227.1362152 17.233984 5.0
53 1 1 0.0 281.5870056 4.9665848 5.0
54 1 1 0.0 215.4283448 14.2848406 5.0
55 1 1 0.0 219.9732056 16.5522366 5.0
56 1 1 0.0 218.7105561 15.9415322 5.0
57 1 1 0.0 216.44664 16.4115906 5.0
58 1 1 0.0 215.2233124 16.9683744 5.0
59 1 1 0.0 217.4420624 16.9115354 5.0
60 1 1 0.0 217.6681214 17.9501724 5.0
61 1 1 0.0 227.4687958 39.7513809 5.0
62 1 1 0.0 226.7049256 33.234375 5.0
63 1 1 0.0 225.5980072 34.0876503 5.0
64 1 1 0.0 226.2228394 39.2042198 5.0
65 1 1 0.0 288.2390747 21.1894169 5.0
66 1 1 0.0 289.3357849 20.4384213 5.0
67 1 1 0.0 286.053833 4.6564923 5.0
68 1 1 0.0 285.085846 5.3572893 5.0
69 1 1 0.0 282.8305359 5.5034008 5.0
70 1 1 0.0 283.8172608 4.8175831 5.0
71 1 1 0.0 268.4334107 102.6234055 5.0
72 1 1 0.0 265.5728455 99.0891571 5.0
73 1 1 0.0 280.3151856 45.3279915 5.0
74 1 1 0.0 279.1288757 44.6155091 5.0
75 1 1 0.0 276.9264222 40.5741234 5.0
76 1 1 0.0 279.2929688 56.4280052 5.0
77 1 1 0.0 282.679657 46.5393982 5.0
78 1 1 0.0 282.7066956 49.1990357 5.0
79 1 1 0.0 284.9943542 45.2477493 5.0
80 1 1 0.0 285.0055542 42.6076813 5.0
81 1 1 0.0 282.6537476 45.3364067 5.0
82 1 1 0.0 281.4691162 44.6296425 5.0
83 1 1 0.0 283.802826 43.4039078 5.0
84 1 1 0.0 283.8463136 44.5733032 5.0
85 1 1 0.0 287.3710327 48.9942742 5.0
86 1 1 0.0 287.4115601 46.3347473 5.0
87 1 1 0.0 285.0463867 49.1202507 5.0
88 1 1 0.0 283.8900452 48.4547043 5.0
89 1 1 0.0 283.8492738 47.2261276 5.0
90 1 1 0.0 285.0567017 46.4599381 5.0
91 1 1 0.0 286.1815796 47.1059113 5.0
92 1 1 0.0 286.2500305 48.3650398 5.0
93 1 1 0.0 280.3568726 49.2267494 5.0
94 1 1 0.0 280.3097229 46.5696488 5.0
95 1 1 0.0 281.5046997 47.2784348 5.0
96 1 1 0.0 281.5188599 48.5023537 5.0
97 1 1 0.0 279.2132874 51.1775818 5.0
98 1 1 0.0 280.3632507 50.464653 5.0
99 1 1 0.0 283.9136048 51.1208763 5.0
100 1 1 0.0 282.7310181 50.434803 5.0
101 1 1 0.0 281.5620423 51.1657143 5.0
102 1 1 0.0 290.8480836 39.8144341 5.0
103 1 1 0.0 290.4640808 38.4121513 5.0
104 1 1 0.0 290.6676331 42.5689469 5.0
105 1 1 0.0 289.1837769 38.1296005 5.0
106 1 1 0.0 288.7468567 36.7210922 5.0
107 1 1 0.0 289.7589417 42.1401367 5.0
108 1 1 0.0 289.4725037 40.7351074 5.0
109 1 1 0.0 284.9184876 41.4247399 5.0
110 1 1 0.0 283.7671509 40.8181877 5.0
111 1 1 0.0 284.6372376 38.8323097 5.0
112 1 1 0.0 283.7650757 39.2337685 5.0
113 1 1 0.0 287.3125305 45.0565491 5.0
114 1 1 0.0 286.2301636 44.4504395 5.0
115 1 1 0.0 286.12854 43.2361336 5.0
116 1 1 0.0 288.5712281 44.2675018 5.0
117 1 1 0.0 288.4309998 42.9742622 5.0
118 1 1 0.0 287.3840637 42.3927269 5.0
119 1 1 0.0 292.1913757 53.901123 5.0
120 1 1 0.0 286.3752136 54.9930382 5.0
121 1 1 0.0 286.3042908 52.3085632 5.0
122 1 1 0.0 287.5303955 54.2386093 5.0
123 1 1 0.0 287.4649964 52.945324 5.0
124 1 1 0.0 266.8310547 66.2084656 5.0
125 1 1 0.0 275.843506 62.3362579 5.0
126 1 1 0.0 270.1043091 62.745163 5.0
127 1 1 0.0 271.2184754 62.0847893 5.0
128 1 1 0.0 238.4221039 45.0170631 5.0
129 1 1 0.0 239.6194153 44.1796799 5.0
130 1 1 0.0 233.5486145 58.9467888 5.0
131 1 1 0.0 234.6810303 58.5478859 5.0
132 1 1 0.0 233.2459412 49.6365471 5.0
133 1 1 0.0 234.3152466 49.9466668 5.0
134 1 1 0.0 238.5424347 46.2169418 5.0
135 1 1 0.0 240.204773 47.7908745 5.0
136 1 1 0.0 240.1413117 46.902073 5.0
137 1 1 0.0 238.8860168 48.852314 5.0
138 1 1 0.0 245.0047455 57.3043785 5.0
139 1 1 0.0 243.0732269 55.4460144 5.0
140 1 1 0.0 245.9628754 58.3134003 5.0
141 1 1 0.0 247.8299103 60.2204437 5.0
142 1 1 0.0 220.5855713 48.211483 5.0
143 1 1 0.0 241.4044037 57.0573616 5.0
144 1 1 0.0 242.7487183 56.6732712 5.0
145 1 1 0.0 243.3571167 58.8720666 5.0
146 1 1 0.0 243.6939698 57.6639786 5.0
147 1 1 0.0 251.8792878 77.6036377 5.0
148 1 1 0.0 265.8201905 66.9229126 5.0
149 1 1 0.0 248.5755005 42.3359146 5.0
150 1 1 0.0 242.9119568 47.0137863 5.0
151 1 1 0.0 241.4319306 48.6615258 5.0
152 1 1 0.0 242.5733948 48.2229386 5.0
153 1 1 0.0 246.4378662 41.7745781 5.0
154 1 1 0.0 247.5944672 41.4078446 5.0
155 1 1 0.0 245.2839966 40.9084436 5.0
156 1 1 0.0 245.1920776 40.2342911 5.0
157 1 1 0.0 247.9390564 40.0040436 5.0
158 1 1 0.0 243.7416382 39.5680428 5.0
159 1 1 0.0 243.3865967 34.2787895 5.0
160 1 1 0.0 261.7250366 39.8458252 5.0
161 1 1 0.0 265.0970154 52.2942314 5.0
162 1 1 0.0 269.7639466 46.9470826 5.0
163 1 1 0.0 268.552063 42.2170029 5.0
164 1 1 0.0 267.4289856 50.9721414 5.0
165 1 1 0.0 272.1260986 52.3035889 5.0
166 1 1 0.0 268.8009949 58.1521645 5.0
167 1 1 0.0 267.6734619 58.86232 5.0
168 1 1 0.0 271.1380005 58.1673317 5.0
169 1 1 0.0 272.4326477 39.6530915 5.0
170 1 1 0.0 271.4307251 38.8109093 5.0
171 1 1 0.0 269.7933045 50.9782524 5.0
172 1 1 0.0 268.6167908 50.2976189 5.0
173 1 1 0.0 268.6235657 48.9128076 5.0
174 1 1 0.0 269.7018433 48.2932167 5.0
175 1 1 0.0 270.8820496 45.117794 5.0
176 1 1 0.0 270.9844666 42.4481468 5.0
177 1 1 0.0 269.589386 44.2497025 5.0
178 1 1 0.0 269.6975403 43.1301994 5.0
179 1 1 0.0 326.7489319 36.6764641 5.0
180 1 1 0.0 326.7765198 38.4304123 5.0
181 1 1 0.0 317.1577149 40.0851517 5.0
182 1 1 0.0 322.6830445 38.7616196 5.0
183 1 1 0.0 321.6044617 39.5199776 5.0
184 1 1 0.0 322.8291626 28.7077523 5.0
185 1 1 0.0 329.0269775 32.1475029 5.0
186 1 1 0.0 330.1834412 31.2418404 5.0
187 1 1 0.0 325.2198181 28.1842537 5.0
188 1 1 0.0 326.3323975 28.6497059 5.0
189 1 1 0.0 329.944275 29.8812104 5.0
190 1 1 0.0 328.8687744 29.4663983 5.0
191 1 1 0.0 311.0971375 38.9812088 5.0
192 1 1 0.0 311.3085938 40.2066917 5.0
193 1 1 0.0 310.2953186 41.0867882 5.0
194 1 1 0.0 309.1087647 40.7124329 5.0
195 1 1 0.0 307.3711853 38.9601212 5.0
196 1 1 0.0 309.7206421 38.4901581 5.0
197 1 1 0.0 308.8287354 39.3419647 5.0
198 1 1 0.0 304.2625733 33.9845314 5.0
199 1 1 0.0 317.304657 41.448349 5.0
200 1 1 0.0 318.4699707 32.1219978 5.0
201 1 1 0.0 315.8955688 39.5662804 5.0
202 1 1 0.0 315.7427674 38.2993698 5.0
203 1 1 0.0 327.1036682 34.0665016 5.0
204 1 1 0.0 318.024231 37.9991722 5.0
205 1 1 0.0 320.4555969 39.0415039 5.0
206 1 1 0.0 318.1871338 39.3142166 5.0
207 1 1 0.0 319.3860779 39.813282 5.0
208 1 1 0.0 294.4946289 52.5592118 5.0
209 1 1 0.0 287.3592224 29.9225274 5.0
210 1 1 0.0 286.8233643 28.9126664 5.0
211 1 1 0.0 287.5026245 27.5759392 5.0
212 1 1 0.0 288.5810852 27.4386864 5.0
213 1 1 0.0 285.0140991 37.3875733 5.0
214 1 1 0.0 284.5370789 36.6893769 5.0
215 1 1 0.0 286.6903076 37.4137154 5.0
216 1 1 0.0 287.2026062 36.6481819 5.0
217 1 1 0.0 282.5481262 37.5481758 5.0
218 1 1 0.0 282.855774 38.7999649 5.0
219 1 1 0.0 280.7492676 37.2495995 5.0
220 1 1 0.0 283.3233338 34.2624245 5.0
221 1 1 0.0 284.6594239 31.9323292 5.0
222 1 1 0.0 205.8348084 2.5637377 5.0
223 1 1 0.0 206.5640717 1.4129644 5.0
224 1 1 0.0 227.999649 4.9876966 5.0
225 1 1 0.0 226.8588104 5.5221825 5.0
226 1 1 0.0 225.0709534 10.4143362 5.0
227 1 1 0.0 225.5838623 14.1327944 5.0
228 1 1 0.0 226.6496582 13.3126907 5.0
229 1 1 0.0 225.2546997 11.47927 5.0
230 1 1 0.0 226.4743042 12.0008669 5.0
231 1 1 0.0 223.2502747 14.3845492 5.0
232 1 1 0.0 221.9310608 13.7785959 5.0
233 1 1 0.0 224.175766 12.3818121 5.0
234 1 1 0.0 224.3042908 13.5554438 5.0
235 1 1 0.0 221.8768464 12.4535609 5.0
236 1 1 0.0 222.8351593 11.7631579 5.0
237 1 1 0.0 281.4722595 3.6157186 5.0
238 1 1 0.0 258.9042664 1.2329307 5.0
239 1 1 0.0 232.2498474 2.3779562 5.0
240 1 1 0.0 228.432602 17.7942734 5.0
241 1 1 0.0 228.5649262 19.0855083 5.0
242 1 1 0.0 233.0684967 17.2836819 5.0
243 1 1 0.0 233.2079163 18.6158867 5.0
244 1 1 0.0 232.8549652 24.6801415 5.0
245 1 1 0.0 208.6091004 9.3670073 5.0
246 1 1 0.0 219.2512055 19.9508514 5.0
247 1 1 0.0 221.4359436 18.4470368 5.0
248 1 1 0.0 220.0348358 17.8784104 5.0
249 1 1 0.0 219.2507324 18.4847794 5.0
250 1 1 0.0 218.3126831 22.2845249 5.0
251 1 1 0.0 216.7995301 19.0738506 5.0
252 1 1 0.0 216.1572876 21.6615601 5.0
253 1 1 0.0 217.9650116 20.5690823 5.0
254 1 1 0.0 217.7079468 21.3509464 5.0
255 1 1 0.0 235.9550018 42.5379944 5.0
256 1 1 0.0 220.3712769 46.9618378 5.0
257 1 1 0.0 221.1631775 44.8077736 5.0
258 1 1 0.0 221.389679 46.0746803 5.0
259 1 1 0.0 223.9197388 39.5603943 5.0
260 1 1 0.0 225.1377411 40.063282 5.0
261 1 1 0.0 226.5681916 32.0018806 5.0
262 1 1 0.0 226.3603668 29.3338547 5.0
263 1 1 0.0 225.7363281 35.307087 5.0
264 1 1 0.0 226.058136 37.9619676 5.0
265 1 1 0.0 227.1466522 37.1069679 5.0
266 1 1 0.0 227.0099182 35.8920784 5.0
267 1 1 0.0 308.6181946 4.4926901 5.0
268 1 1 0.0 301.6949158 4.7986584 5.0
269 1 1 0.0 308.0715027 3.3591111 5.0
270 1 1 0.0 306.3930359 3.4695671 5.0
271 1 1 0.0 305.9035034 2.9019762 5.0
272 1 1 0.0 294.3877564 4.5491948 5.0
273 1 1 0.0 291.7406006 4.369134 5.0
274 1 1 0.0 295.6991577 13.4444742 5.0
275 1 1 0.0 296.427002 14.5823069 5.0
276 1 1 0.0 296.7712403 12.1329489 5.0
277 1 1 0.0 298.9467468 7.7635556 5.0
278 1 1 0.0 299.8513184 6.7015496 5.0
279 1 1 0.0 315.0094299 25.0342999 5.0
280 1 1 0.0 315.1482544 26.1987705 5.0
281 1 1 0.0 315.736084 29.858345 5.0
282 1 1 0.0 315.5656128 28.8034401 5.0
283 1 1 0.0 314.6369019 30.829794 5.0
284 1 1 0.0 313.3265076 30.229681 5.0
285 1 1 0.0 307.9472962 19.0945606 5.0
286 1 1 0.0 315.7417908 9.3082619 5.0
287 1 1 0.0 315.7515869 11.5797444 5.0
288 1 1 0.0 315.1225281 10.4787703 5.0
289 1 1 0.0 313.1619263 9.1466417 5.0
290 1 1 0.0 313.1263428 11.3657732 5.0
291 1 1 0.0 313.7246704 10.4722243 5.0
292 1 1 0.0 315.736145 16.1928864 5.0
293 1 1 0.0 320.9883728 13.5786181 5.0
294 1 1 0.0 316.6480103 6.8621616 5.0
295 1 1 0.0 307.1344299 11.0229101 5.0
296 1 1 0.0 305.765625 11.8345366 5.0
297 1 1 0.0 307.9732056 13.1406899 5.0
298 1 1 0.0 307.8175049 11.3957186 5.0
299 1 1 0.0 373.1065674 6.5214067 5.0
300 1 1 0.0 132.1083832 3.7209921 5.0
301 1 1 0.0 132.4201813 2.4138973 5.0
302 1 1 0.0 9.0524826 64.598999 5.0
303 1 1 0.0 16.0888424 64.7929077 5.0
304 1 1 0.0 295.6330567 21.027441 5.0
305 1 1 0.0 290.7704468 21.1755238 5.0
306 1 1 0.0 286.5407105 12.7299423 5.0
307 1 1 0.0 290.1758728 14.4124785 5.0
308 1 1 0.0 289.1390686 15.2229586 5.0
309 1 1 0.0 287.844452 14.6504021 5.0
310 1 1 0.0 287.7583008 13.2625008 5.0
311 1 1 0.0 290.6509094 18.403431 5.0
312 1 1 0.0 290.5323792 17.0913239 5.0
313 1 1 0.0 289.2556458 16.4844322 5.0
314 1 1 0.0 289.2915344 19.1426315 5.0
315 1 1 0.0 305.0815125 29.4178696 5.0
316 1 1 0.0 283.7239685 3.4006627 5.0
317 1 1 0.0 282.5044251 2.8726952 5.0
318 1 1 0.0 287.3707886 5.1845226 5.0
319 1 1 0.0 287.4587097 6.5282598 5.0
320 1 1 0.0 286.422699 7.2867994 5.0
321 1 1 0.0 285.1846619 6.712586 5.0
322 1 1 0.0 261.0233765 110.6373215 5.0
323 1 1 0.0 260.5207215 111.7759781 5.0
324 1 1 0.0 259.3854065 112.0187225 5.0
325 1 1 0.0 261.5224915 112.9551926 5.0
326 1 1 0.0 281.6566468 107.3727951 5.0
327 1 1 0.0 282.2081299 106.2134781 5.0
328 1 1 0.0 260.1037293 109.4372254 5.0
329 1 1 0.0 262.36026 104.0335007 5.0
330 1 1 0.0 260.0450134 104.8241501 5.0
331 1 1 0.0 260.6204224 103.989708 5.0
332 1 1 0.0 266.3497009 100.998169 5.0
333 1 1 0.0 265.4862976 100.278595 5.0
334 1 1 0.0 260.256073 102.5823975 5.0
335 1 1 0.0 279.1538391 48.5163193 5.0
336 1 1 0.0 279.1581726 47.2718163 5.0
337 1 1 0.0 279.1481018 43.3595162 5.0
338 1 1 0.0 277.9769288 42.6458321 5.0
339 1 1 0.0 278.0454102 41.2815895 5.0
340 1 1 0.0 273.4318238 41.4140701 5.0
341 1 1 0.0 274.755127 40.7370835 5.0
342 1 1 0.0 275.7055359 41.2539635 5.0
343 1 1 0.0 288.5819702 48.2395859 5.0
344 1 1 0.0 288.4947815 46.9315988 5.0
345 1 1 0.0 276.9715882 55.0810928 5.0
346 1 1 0.0 279.4009705 59.1218834 5.0
347 1 1 0.0 279.3615418 60.4640808 5.0
348 1 1 0.0 278.2442017 61.1117897 5.0
349 1 1 0.0 281.476593 43.3888931 5.0
350 1 1 0.0 280.3083191 42.6765213 5.0
351 1 1 0.0 282.6445313 41.4385453 5.0
352 1 1 0.0 282.6312866 42.7039871 5.0
353 1 1 0.0 279.2098694 52.4254914 5.0
354 1 1 0.0 278.0776978 53.1223984 5.0
355 1 1 0.0 278.0699158 54.4106979 5.0
356 1 1 0.0 279.2789612 55.0905647 5.0
357 1 1 0.0 283.9427796 52.3655357 5.0
358 1 1 0.0 285.1308899 53.0516167 5.0
359 1 1 0.0 285.1595459 54.2829819 5.0
360 1 1 0.0 290.818512 44.0974312 5.0
361 1 1 0.0 289.6025696 44.8169861 5.0
362 1 1 0.0 289.7124024 46.1843796 5.0
363 1 1 0.0 290.7914734 46.7525521 5.0
364 1 1 0.0 291.8052368 41.9519006 5.0
365 1 1 0.0 292.678772 39.793911 5.0
366 1 1 0.0 291.753357 40.2085533 5.0
367 1 1 0.0 292.9233398 42.4747658 5.0
368 1 1 0.0 287.2591553 41.265213 5.0
369 1 1 0.0 286.0205078 39.6570549 5.0
370 1 1 0.0 286.0801697 40.585083 5.0
371 1 1 0.0 287.0809631 38.7122154 5.0
372 1 1 0.0 288.234375 39.0604057 5.0
373 1 1 0.0 288.5485535 40.3194733 5.0
374 1 1 0.0 299.1980286 52.4090614 5.0
375 1 1 0.0 295.6189575 51.807827 5.0
376 1 1 0.0 295.5697327 50.5163002 5.0
377 1 1 0.0 296.8663026 52.4635391 5.0
378 1 1 0.0 297.927765 51.7600098 5.0
379 1 1 0.0 300.2109985 50.399025 5.0
380 1 1 0.0 300.232666 51.7455712 5.0
381 1 1 0.0 301.4822998 52.376461 5.0
382 1 1 0.0 302.553772 51.671093 5.0
383 1 1 0.0 292.1939392 56.5570908 5.0
384 1 1 0.0 305.4472656 76.3789902 5.0
385 1 1 0.0 282.8441772 73.0358963 5.0
386 1 1 0.0 284.0037537 73.7273255 5.0
387 1 1 0.0 291.1086731 56.0190964 5.0
388 1 1 0.0 288.7059326 54.8540688 5.0
389 1 1 0.0 290.9752502 54.6962013 5.0
390 1 1 0.0 289.867218 54.1184158 5.0
391 1 1 0.0 288.7765503 56.2338448 5.0
392 1 1 0.0 289.9361878 56.7865105 5.0
393 1 1 0.0 280.5156555 58.4668122 5.0
394 1 1 0.0 280.4490967 57.0524063 5.0
395 1 1 0.0 271.2588501 64.708931 5.0
396 1 1 0.0 268.9532776 64.6680832 5.0
397 1 1 0.0 270.0783997 63.9939308 5.0
398 1 1 0.0 266.5429077 60.8599664 5.0
399 1 1 0.0 267.7014466 60.1277123 5.0
400 1 1 0.0 268.895752 60.8073426 5.0
401 1 1 0.0 268.908661 62.0434303 5.0
402 1 1 0.0 264.3299255 62.3454514 5.0
403 1 1 0.0 274.2213135 68.4367295 5.0
404 1 1 0.0 273.3336182 66.3246994 5.0
405 1 1 0.0 274.3160095 66.9823914 5.0
406 1 1 0.0 273.589447 60.8979836 5.0
407 1 1 0.0 272.35495 60.1629753 5.0
408 1 1 0.0 273.4796753 58.2369576 5.0
409 1 1 0.0 272.3946228 58.8978578 5.0
410 1 1 0.0 273.5212097 62.2239113 5.0
411 1 1 0.0 272.4178467 62.8087769 5.0
412 1 1 0.0 274.6648255 62.934971 5.0
413 1 1 0.0 272.3234558 64.192337 5.0
414 1 1 0.0 273.4240418 64.8788606 5.0
415 1 1 0.0 274.5921021 64.3299942 5.0
416 1 1 0.0 238.28125 42.3126488 5.0
417 1 1 0.0 239.4076996 42.821209 5.0
418 1 1 0.0 236.6336365 57.228611 5.0
419 1 1 0.0 234.2876587 56.3099556 5.0
420 1 1 0.0 235.0347137 57.5525475 5.0
421 1 1 0.0 238.7881317 57.618454 5.0
422 1 1 0.0 237.3922577 57.9921952 5.0
423 1 1 0.0 234.7977143 51.4224091 5.0
424 1 1 0.0 235.993454 45.291462 5.0
425 1 1 0.0 235.5052338 48.9500428 5.0
426 1 1 0.0 236.3908692 49.2143326 5.0
427 1 1 0.0 235.015152 47.5054245 5.0
428 1 1 0.0 236.1758118 46.5323906 5.0
429 1 1 0.0 237.510788 47.1389542 5.0
430 1 1 0.0 237.6586609 48.1559372 5.0
431 1 1 0.0 246.5648651 60.5443802 5.0
432 1 1 0.0 244.3186035 59.879509 5.0
433 1 1 0.0 245.6007538 59.5299225 5.0
434 1 1 0.0 249.2728882 71.716774 5.0
435 1 1 0.0 248.5056153 70.6002655 5.0
436 1 1 0.0 256.1955872 75.8255768 5.0
437 1 1 0.0 241.0902863 58.2456398 5.0
438 1 1 0.0 239.7249146 58.6394997 5.0
439 1 1 0.0 239.4153137 59.792965 5.0
440 1 1 0.0 242.0362091 59.2476921 5.0
441 1 1 0.0 242.3161926 71.0852432 5.0
442 1 1 0.0 264.4640503 65.0061493 5.0
443 1 1 0.0 264.6132508 66.4328232 5.0
444 1 1 0.0 265.2455444 54.915516 5.0
445 1 1 0.0 260.3596497 40.1433411 5.0
446 1 1 0.0 259.9499818 41.2672806 5.0
447 1 1 0.0 249.8117218 42.0523415 5.0
448 1 1 0.0 250.2288971 40.6935005 5.0
449 1 1 0.0 251.6156159 40.496891 5.0
450 1 1 0.0 252.4391785 41.4434624 5.0
451 1 1 0.0 240.5736084 44.5961037 5.0
452 1 1 0.0 240.8996736 46.1164627 5.0
453 1 1 0.0 242.4024506 46.2907562 5.0
454 1 1 0.0 248.9217072 44.5988312 5.0
455 1 1 0.0 248.1692352 43.7495499 5.0
456 1 1 0.0 241.1590271 50.1104813 5.0
457 1 1 0.0 240.2874756 52.6361733 5.0
458 1 1 0.0 240.4795227 40.7465821 5.0
459 1 1 0.0 240.5681305 41.9794388 5.0
460 1 1 0.0 241.5351715 39.9787446 5.0
461 1 1 0.0 242.6640778 40.3997269 5.0
462 1 1 0.0 245.6540222 37.8536224 5.0
463 1 1 0.0 247.5715485 39.5156441 5.0
464 1 1 0.0 246.0276794 39.3230629 5.0
465 1 1 0.0 243.6150055 38.2992478 5.0
466 1 1 0.0 244.8351746 37.5014954 5.0
467 1 1 0.0 243.5935974 35.6293717 5.0
468 1 1 0.0 244.5752106 36.0951157 5.0
469 1 1 0.0 270.2476502 39.184391 5.0
470 1 1 0.0 269.9892884 40.4918556 5.0
471 1 1 0.0 268.7697754 40.9489288 5.0
472 1 1 0.0 267.7402039 40.0713081 5.0
473 1 1 0.0 269.7038574 36.900631 5.0
474 1 1 0.0 268.9484254 36.0760307 5.0
475 1 1 0.0 269.3033142 38.3430138 5.0
476 1 1 0.0 268.1392517 38.6153221 5.0
477 1 1 0.0 262.6081848 40.968525 5.0
478 1 1 0.0 286.0852356 22.8048878 5.0
479 1 1 0.0 268.4095764 46.2059059 5.0
480 1 1 0.0 268.5190735 44.8837242 5.0
481 1 1 0.0 267.2977905 42.7507439 5.0
482 1 1 0.0 266.1342774 44.5927429 5.0
483 1 1 0.0 267.1038208 44.031826 5.0
484 1 1 0.0 247.2431336 57.9716034 5.0
485 1 1 0.0 249.4689484 58.6641236 5.0
486 1 1 0.0 248.211319 58.9934922 5.0
487 1 1 0.0 254.2093506 43.4666558 5.0
488 1 1 0.0 267.4367676 52.2557182 5.0
489 1 1 0.0 266.2312317 54.2124481 5.0
490 1 1 0.0 266.2161865 52.997963 5.0
491 1 1 0.0 274.5128479 51.1021462 5.0
492 1 1 0.0 276.8451234 52.4104614 5.0
493 1 1 0.0 272.1549072 51.035183 5.0
494 1 1 0.0 270.915802 50.3114967 5.0
495 1 1 0.0 273.2986145 49.1053658 5.0
496 1 1 0.0 273.2604675 50.363514 5.0
497 1 1 0.0 272.0421753 48.3557625 5.0
498 1 1 0.0 270.9516296 49.008461 5.0
499 1 1 0.0 272.8729248 35.1977463 5.0
500 1 1 0.0 271.5200196 35.4452858 5.0
501 1 1 0.0 271.7450257 37.4825821 5.0
502 1 1 0.0 271.1197205 36.7005959 5.0
503 1 1 0.0 281.328125 35.3092804 5.0
504 1 1 0.0 280.5218811 36.8901902 5.0
505 1 1 0.0 279.4623413 36.6552925 5.0
506 1 1 0.0 368.0322876 121.6555252 5.0
507 1 1 0.0 352.5879822 115.3399735 5.0
508 1 1 0.0 366.5430298 119.8607484 5.0
509 1 1 0.0 367.7998657 120.3036575 5.0
510 1 1 0.0 310.4862061 26.7563496 5.0
511 1 1 0.0 309.4122009 27.5891629 5.0
512 1 1 0.0 321.7857056 40.9238092 5.0
513 1 1 0.0 322.952881 41.3981056 5.0
514 1 1 0.0 324.8355103 38.5092659 5.0
515 1 1 0.0 323.8208618 39.2202797 5.0
516 1 1 0.0 326.0579224 38.9445496 5.0
517 1 1 0.0 323.998291 40.6348114 5.0
518 1 1 0.0 326.1752319 40.3993111 5.0
519 1 1 0.0 325.208252 41.1161728 5.0
520 1 1 0.0 322.6038513 27.5816384 5.0
521 1 1 0.0 324.9644776 27.1190643 5.0
522 1 1 0.0 323.659607 26.5526676 5.0
523 1 1 0.0 323.4936829 25.6974373 5.0
524 1 1 0.0 326.136261 25.9718628 5.0
525 1 1 0.0 306.6869507 39.6813507 5.0
526 1 1 0.0 311.4762879 34.3165665 5.0
527 1 1 0.0 312.7914429 34.8998796 5.0
528 1 1 0.0 309.1026306 34.6850205 5.0
529 1 1 0.0 309.5249329 37.3197289 5.0
530 1 1 0.0 310.5767517 36.3825035 5.0
531 1 1 0.0 310.4009094 35.2501183 5.0
532 1 1 0.0 311.3139343 33.1942215 5.0
533 1 1 0.0 312.2433167 31.1531448 5.0
534 1 1 0.0 312.3964844 32.2660103 5.0
535 1 1 0.0 304.4558411 35.4374466 5.0
536 1 1 0.0 306.7377625 35.0479546 5.0
537 1 1 0.0 308.0196838 35.6018105 5.0
538 1 1 0.0 308.2039185 36.7746239 5.0
539 1 1 0.0 307.142395 37.7083168 5.0
540 1 1 0.0 305.8729248 37.2016144 5.0
541 1 1 0.0 305.653595 35.9152908 5.0
542 1 1 0.0 303.0910645 33.5551644 5.0
543 1 1 0.0 302.0065308 34.2965431 5.0
544 1 1 0.0 301.0505676 33.904026 5.0
545 1 1 0.0 310.6012879 42.4006386 5.0
546 1 1 0.0 311.7181702 42.8145027 5.0
547 1 1 0.0 316.3085022 42.1745339 5.0
548 1 1 0.0 321.1303406 45.7547913 5.0
549 1 1 0.0 319.999817 45.2631798 5.0
550 1 1 0.0 318.8789978 46.0117645 5.0
551 1 1 0.0 319.8918458 33.848629 5.0
552 1 1 0.0 318.6399842 33.2861557 5.0
553 1 1 0.0 321.0109863 32.9343034 5.0
554 1 1 0.0 315.3383789 35.6810761 5.0
555 1 1 0.0 316.6269226 36.248867 5.0
556 1 1 0.0 317.542511 34.1915703 5.0
557 1 1 0.0 317.7070008 35.3684998 5.0
558 1 1 0.0 313.5943299 39.8257065 5.0
559 1 1 0.0 312.5888977 40.6948471 5.0
560 1 1 0.0 312.7854615 41.8792 5.0
561 1 1 0.0 314.9026184 40.3528214 5.0
562 1 1 0.0 315.0436707 41.6571579 5.0
563 1 1 0.0 314.0679932 42.4093742 5.0
564 1 1 0.0 326.7821045 32.6224251 5.0
565 1 1 0.0 327.9710388 31.731638 5.0
566 1 1 0.0 326.6374817 29.9323788 5.0
567 1 1 0.0 327.66922 30.3454838 5.0
568 1 1 0.0 322.4880371 37.3485832 5.0
569 1 1 0.0 292.1219788 52.6750641 5.0
570 1 1 0.0 293.2979431 51.9090196 5.0
571 1 1 0.0 312.4536743 59.3409958 5.0
572 1 1 0.0 311.4822998 60.0288544 5.0
573 1 1 0.0 307.2475586 65.3460159 5.0
574 1 1 0.0 308.4537049 66.0380783 5.0
575 1 1 0.0 293.3876343 26.9155618 5.0
576 1 1 0.0 294.7800904 26.9204484 5.0
577 1 1 0.0 294.7656861 29.2110844 5.0
578 1 1 0.0 295.4155579 28.1127262 5.0
579 1 1 0.0 291.301117 27.978323 5.0
580 1 1 0.0 292.7518006 27.9866638 5.0
581 1 1 0.0 292.7171326 30.2677097 5.0
582 1 1 0.0 293.3737793 29.1955662 5.0
583 1 1 0.0 287.3731995 24.9370252 5.0
584 1 1 0.0 287.2362976 23.3141136 5.0
585 1 1 0.0 288.4087219 22.6114388 5.0
586 1 1 0.0 284.6583252 29.5868359 5.0
587 1 1 0.0 285.2662659 28.7795735 5.0
588 1 1 0.0 287.3409729 32.2265587 5.0
589 1 1 0.0 288.7574768 32.2261238 5.0
590 1 1 0.0 288.7709046 34.4915657 5.0
591 1 1 0.0 289.387085 33.6179657 5.0
592 1 1 0.0 283.2954102 31.9462414 5.0
593 1 1 0.0 282.6698914 33.0947762 5.0
594 1 1 0.0 279.2263489 32.0467072 5.0
595 1 1 0.0 280.6598816 34.3047447 5.0
596 1 1 0.0 281.2816773 33.122242 5.0
597 1 1 0.0 280.6042176 31.9702626 5.0
598 1 1 0.0 285.2883606 33.1735497 5.0
599 1 1 0.0 286.740387 33.1865234 5.0
600 1 1 0.0 285.214447 35.3129768 5.0
601 1 1 0.0 284.633667 34.2911949 5.0
602 1 1 0.0 286.7195435 35.3800964 5.0
603 1 1 0.0 287.3083496 34.4706459 5.0
604 1 1 0.0 167.0148773 6.6787997 5.0
605 1 1 0.0 164.3814087 7.5612197 5.0
606 1 1 0.0 173.2993164 7.0644712 5.0
607 1 1 0.0 172.7084961 8.3137159 5.0
608 1 1 0.0 168.3766632 6.4455195 5.0
609 1 1 0.0 188.4105377 18.1507397 5.0
610 1 1 0.0 186.7120056 19.6319084 5.0
611 1 1 0.0 187.9873506 19.3989601 5.0
612 1 1 0.0 214.849289 8.3566151 5.0
613 1 1 0.0 207.7019196 8.1945438 5.0
614 1 1 0.0 208.5901032 0.2501634 5.0
615 1 1 0.0 207.8267823 1.4469792 5.0
616 1 1 0.0 220.490799 10.4793577 5.0
617 1 1 0.0 219.5817261 12.5127058 5.0
618 1 1 0.0 220.522995 11.8418666 5.0
619 1 1 0.0 229.6706238 3.1889842 5.0
620 1 1 0.0 228.130188 3.6548989 5.0
621 1 1 0.0 224.6138611 4.7104573 5.0
622 1 1 0.0 225.4910584 4.3430147 5.0
623 1 1 0.0 224.2779236 5.9554462 5.0
624 1 1 0.0 221.5975952 9.8278647 5.0
625 1 1 0.0 223.8130341 8.4885102 5.0
626 1 1 0.0 223.8092957 9.8061085 5.0
627 1 1 0.0 222.8035126 10.4558754 5.0
628 1 1 0.0 218.644989 3.7081375 5.0
629 1 1 0.0 216.3877716 2.2610564 5.0
630 1 1 0.0 216.3492279 3.6779397 5.0
631 1 1 0.0 217.4121552 4.3313866 5.0
632 1 1 0.0 219.708725 4.3718343 5.0
633 1 1 0.0 216.0866394 7.8315158 5.0
634 1 1 0.0 216.1509857 6.3482204 5.0
635 1 1 0.0 217.3900299 5.7645011 5.0
636 1 1 0.0 222.0904694 0.2558909 5.0
637 1 1 0.0 273.2387695 2.6613686 5.0
638 1 1 0.0 275.4853821 2.3470822 5.0
639 1 1 0.0 274.3676758 1.8751984 5.0
640 1 1 0.0 274.1751099 0.4733791 5.0
641 1 1 0.0 259.773346 4.6460901 5.0
642 1 1 0.0 259.0129089 3.5356231 5.0
643 1 1 0.0 260.8688966 2.2410739 5.0
644 1 1 0.0 259.6450501 2.3025506 5.0
645 1 1 0.0 257.6341553 1.2924416 5.0
646 1 1 0.0 255.0014496 1.3111932 5.0
647 1 1 0.0 266.5393372 0.4593209 5.0
648 1 1 0.0 267.6205139 1.4719394 5.0
649 1 1 0.0 267.5908509 2.2550619 5.0
650 1 1 0.0 261.5084839 0.9311478 5.0
651 1 1 0.0 235.7662354 12.2861967 5.0
652 1 1 0.0 234.7735443 13.0469122 5.0
653 1 1 0.0 235.6097565 10.911521 5.0
654 1 1 0.0 230.3210144 3.7666991 5.0
655 1 1 0.0 231.9666902 3.2894378 5.0
656 1 1 0.0 228.9198608 13.0422182 5.0
657 1 1 0.0 228.0492096 15.1488876 5.0
658 1 1 0.0 227.8895416 13.8301554 5.0
659 1 1 0.0 230.8924714 18.8532582 5.0
660 1 1 0.0 232.1872253 19.4003334 5.0
661 1 1 0.0 229.9931488 20.9454194 5.0
662 1 1 0.0 229.8632508 19.6452084 5.0
663 1 1 0.0 234.9122926 14.4044876 5.0
664 1 1 0.0 233.932068 15.1647854 5.0
665 1 1 0.0 234.0691986 16.5108929 5.0
666 1 1 0.0 231.4282837 22.8118801 5.0
667 1 1 0.0 231.2988129 21.5022774 5.0
668 1 1 0.0 232.3219147 20.7157021 5.0
669 1 1 0.0 233.6216126 21.2658138 5.0
670 1 1 0.0 233.7549896 22.5808716 5.0
671 1 1 0.0 232.7249604 23.3678246 5.0
672 1 1 0.0 237.0601349 12.7914744 5.0
673 1 1 0.0 231.3830109 32.7890473 5.0
674 1 1 0.0 232.8260651 34.5945969 5.0
675 1 1 0.0 232.7092896 33.3843956 5.0
676 1 1 0.0 235.1618805 34.447033 5.0
677 1 1 0.0 234.120285 35.20224 5.0
678 1 1 0.0 234.6172333 29.2211228 5.0
679 1 1 0.0 233.2208252 27.3402577 5.0
680 1 1 0.0 233.3439484 28.6454907 5.0
681 1 1 0.0 224.0679779 29.604393 5.0
682 1 1 0.0 225.214798 30.1531296 5.0
683 1 1 0.0 225.3612518 31.4227638 5.0
684 1 1 0.0 222.8731996 30.4153328 5.0
685 1 1 0.0 221.6602021 28.47538 5.0
686 1 1 0.0 220.5084381 27.9426366 5.0
687 1 1 0.0 221.7882996 29.8664494 5.0
688 1 1 0.0 220.4620209 26.4987469 5.0
689 1 1 0.0 220.3536377 20.5904579 5.0
690 1 1 0.0 221.5540772 19.7340374 5.0
691 1 1 0.0 223.8790436 19.5225277 5.0
692 1 1 0.0 222.8043518 20.3399582 5.0
693 1 1 0.0 222.9108582 21.5850621 5.0
694 1 1 0.0 234.1411743 25.2369347 5.0
695 1 1 0.0 234.2725678 26.5508347 5.0
696 1 1 0.0 230.8843842 27.565466 5.0
697 1 1 0.0 231.9421234 26.7733383 5.0
698 1 1 0.0 231.8161469 25.4667969 5.0
699 1 1 0.0 202.7572937 25.832613 5.0
700 1 1 0.0 205.3387146 12.2584353 5.0
701 1 1 0.0 208.3376312 10.3091011 5.0
702 1 1 0.0 206.9615936 10.7445326 5.0
703 1 1 0.0 206.6233063 11.878643 5.0
704 1 1 0.0 207.6252747 12.9212638 5.0
705 1 1 0.0 208.9450836 12.5380192 5.0
706 1 1 0.0 209.2569428 11.3999205 5.0
707 1 1 0.0 210.7816468 10.9917402 5.0
708 1 1 0.0 211.5244599 11.8522578 5.0
709 1 1 0.0 213.1771088 13.8691778 5.0
710 1 1 0.0 214.0597687 16.0167618 5.0
711 1 1 0.0 214.2997437 14.7706671 5.0
712 1 1 0.0 207.2862702 14.1267595 5.0
713 1 1 0.0 217.6339875 23.8433094 5.0
714 1 1 0.0 218.8869172 24.773674 5.0
715 1 1 0.0 218.8605652 25.9018594 5.0
716 1 1 0.0 215.2783508 20.6263428 5.0
717 1 1 0.0 214.9953766 18.1979637 5.0
718 1 1 0.0 215.928238 19.1645947 5.0
719 1 1 0.0 221.8026123 32.5549469 5.0
720 1 1 0.0 223.0166016 31.6915493 5.0
721 1 1 0.0 224.335556 33.4966889 5.0
722 1 1 0.0 224.1959686 32.2784996 5.0
723 1 1 0.0 223.7245331 38.2615395 5.0
724 1 1 0.0 224.6507416 36.1583023 5.0
725 1 1 0.0 224.8102722 37.413353 5.0
726 1 1 0.0 230.5661316 49.1516686 5.0
727 1 1 0.0 232.8691102 48.6266556 5.0
728 1 1 0.0 231.4346009 48.2117615 5.0
729 1 1 0.0 233.898941 47.1859169 5.0
730 1 1 0.0 222.7377014 52.5394821 5.0
731 1 1 0.0 226.7895355 49.1139031 5.0
732 1 1 0.0 228.2245484 49.5773087 5.0
733 1 1 0.0 229.1013947 48.6982346 5.0
734 1 1 0.0 222.6788483 46.5479126 5.0
735 1 1 0.0 230.2766419 43.2695694 5.0
736 1 1 0.0 229.9598542 40.659874 5.0
737 1 1 0.0 231.2752228 41.2999077 5.0
738 1 1 0.0 231.3525238 42.4153938 5.0
739 1 1 0.0 230.4605561 44.5072098 5.0
740 1 1 0.0 231.1775055 47.0388374 5.0
741 1 1 0.0 227.6357422 40.9791566 5.0
742 1 1 0.0 228.8779602 41.5221977 5.0
743 1 1 0.0 229.0491638 42.7437516 5.0
744 1 1 0.0 227.993103 43.5997086 5.0
745 1 1 0.0 222.223938 43.9196396 5.0
746 1 1 0.0 229.8464356 39.4977684 5.0
747 1 1 0.0 228.5541077 38.891266 5.0
748 1 1 0.0 228.4246521 37.6969605 5.0
749 1 1 0.0 440.1212769 122.599289 5.0
750 1 1 0.0 414.841919 135.1921387 5.0
751 1 1 0.0 415.0046387 133.8954468 5.0
752 1 1 0.0 465.857544 103.7621537 5.0
753 1 1 0.0 454.8141785 108.0697174 5.0
754 1 1 0.0 422.4195862 113.2189255 5.0
755 1 1 0.0 390.9098816 25.6502648 5.0
756 1 1 0.0 403.0756226 106.1729126 5.0
757 1 1 0.0 411.3930054 98.937294 5.0
758 1 1 0.0 414.0932617 15.1561852 5.0
759 1 1 0.0 299.4475708 5.5014038 5.0
760 1 1 0.0 300.2429505 4.5286579 5.0
761 1 1 0.0 299.865326 3.3101931 5.0
762 1 1 0.0 298.4127808 3.0717604 5.0
763 1 1 0.0 302.0823364 5.9477082 5.0
764 1 1 0.0 301.1951599 7.00208 5.0
765 1 1 0.0 309.9718934 4.614264 5.0
766 1 1 0.0 304.3644409 5.1896467 5.0
767 1 1 0.0 303.4211121 6.2526918 5.0
768 1 1 0.0 303.8130188 7.478282 5.0
769 1 1 0.0 300.6065369 2.3670492 5.0
770 1 1 0.0 300.2843018 1.3105749 5.0
771 1 1 0.0 298.0750427 1.3707079 5.0
772 1 1 0.0 298.6351319 0.9278336 5.0
773 1 1 0.0 288.9129028 0.8252366 5.0
774 1 1 0.0 293.8190003 3.3430133 5.0
775 1 1 0.0 292.7911682 3.1640356 5.0